318
 Atoms. Timestep: 0
2 2.77421 8.83133 9.47797
1 2.21443 8.28357 10.0283
1 2.15763 9.20906 8.85077
2 10.4844 8.60306 5.07811
1 10.9144 8.96535 5.85274
1 9.73231 9.18545 4.97093
2 1.63275 6.57489 2.11496
1 1.92808 5.69765 1.8711
1 0.836816 6.65027 1.58862
2 10.2913 7.83745 2.2958
1 11.0411 8.41594 2.1566
1 10.2775 7.82352 3.2528
2 10.7864 5.40705 0.924085
1 11.0216 4.75738 1.58655
1 10.6869 6.17295 1.48953
2 8.82385 12.9944 5.23974
1 8.09099 12.4065 5.42277
1 9.29017 12.4981 4.56709
2 10.115 12.7202 10.2646
1 9.61852 12.2176 9.6187
1 9.55667 12.6781 11.0409
2 14.2025 1.95095 2.91322
1 14.1063 2.84599 3.23862
1 13.485 1.54074 3.39607
2 8.80712 10.6474 8.78224
1 8.13564 10.8456 8.1295
1 8.32241 10.0866 9.38789
2 9.04063 12.0581 12.6964
1 8.35874 11.4182 12.9007
1 9.48745 12.1457 13.5384
2 10.6189 0.990838 2.13264
1 10.4102 1.01446 3.06651
1 9.87576 1.41735 1.70592
2 4.68293 8.09936 7.82838
1 5.43455 7.9751 8.40791
1 4.04055 8.43344 8.45445
2 3.4179 4.6766 9.6629
1 3.16872 5.22244 8.91711
1 3.78275 3.91698 9.20892
2 2.98895 10.2791 13.0475
1 3.68423 10.7746 12.6147
1 3.3707 9.40135 13.0581
2 5.51068 13.2191 4.64322
1 5.6993 12.7865 3.81042
1 4.68338 13.6638 4.45883
2 5.02322 13.6647 8.38582
1 5.8733 13.4658 7.99335
1 5.18187 14.5753 8.63449
2 2.34347 10.6895 2.66121
1 2.0526 10.7606 3.57037
1 2.89181 9.90516 2.67804
2 2.70423 6.24082 7.58275
1 2.46947 6.15861 6.65843
1 3.41712 6.87834 7.543
2 11.0408 14.7128 5.88909
1 10.144 14.4294 5.7107
1 11.5016 13.8801 5.78643
2 0.833438 4.58827 10.0994
1 0.589455 3.69616 10.3461
1 1.77951 4.52593 9.96791
2 8.19561 7.88294 0.528517
1 8.79754 7.74139 15.2978
1 8.82101 7.86484 1.25294
2 6.96551 2.34196 13.3853
1 6.19886 2.8986 13.5217
1 6.61725 1.47037 13.5731
2 4.00606 7.78548 12.6618
1 4.56288 7.16471 12.1919
1 3.16041 7.34832 12.5618
2 12.4691 9.41535 2.24311
1 13.0063 9.80454 2.93317
1 13.0859 8.76856 1.90042
2 11.1284 9.58737 7.82559
1 10.3897 10.0783 8.18544
1 10.9849 8.73861 8.24424
2 13.1417 4.36192 6.58955
1 12.408 3.86927 6.9574
1 13.8401 4.14139 7.20584
2 1.97492 0.791292 1.59177
1 1.82641 15.3989 1.90453
1 1.23493 0.902113 0.994805
2 7.9529 9.72858 4.32658
1 7.42858 10.3144 3.7806
1 7.26884 9.19038 4.72486
2 3.34422 1.75097 3.75458
1 2.88743 1.34404 3.01839
1 4.23814 1.87876 3.43709
2 4.58495 2.6207 8.54664
1 5.4441 2.81467 8.17185
1 4.44347 1.71538 8.26985
2 14.4926 0.244256 11.5284
1 14.006 14.9687 11.8075
1 14.5111 0.763705 12.3321
2 12.7749 13.4331 11.9619
1 12.4774 13.5114 11.0555
1 12.0167 13.7819 12.4306
2 6.62103 7.28048 9.59992
1 6.08228 6.88252 10.2837
1 7.43658 7.40198 10.0861
2 4.67481 5.57616 4.98255
1 5.17602 4.97231 4.43448
1 5.26218 5.69386 5.72913
2 5.51835 14.0924 13.1373
1 6.22646 13.8852 13.7471
1 4.7684 14.0488 13.7305
2 3.77228 8.33863 3.32666
1 4.4727 7.78714 2.97809
1 3.04194 7.72259 3.26891
2 9.95054 11.5653 3.38123
1 9.3674 10.8072 3.4204
1 10.5461 11.3406 2.66634
2 10.458 9.52316 11.4481
1 10.0593 10.3925 11.4099
1 11.3828 9.76082 11.3799
2 14.165 7.13422 0.22991
1 13.3378 7.22105 15.2561
1 14.7983 7.37014 15.052
2 11.1998 10.4505 0.102227
1 11.6778 11.2538 15.3963
1 11.5707 10.2308 0.956873
2 13.0095 2.97124 10.1358
1 12.6502 2.58114 9.33891
1 13.8941 2.60697 10.1667
2 5.41839 9.17451 5.41011
1 4.7851 8.88065 4.75526
1 5.08877 8.71639 6.18323
2 6.927 13.6589 15.3565
1 7.84831 13.5432 0.0889596
1 6.7376 14.525 0.217349
2 6.81617 11.0319 6.89919
1 6.23068 11.7751 6.75406
1 6.42059 10.3598 6.34422
2 12.4551 1.42422 5.09076
1 12.3965 0.515354 5.38533
1 11.5849 1.7594 5.30675
2 2.4211 3.70266 5.26074
1 2.66218 2.99506 4.66291
1 3.11055 4.34795 5.10419
2 11.3679 2.1131 14.6135
1 11.4965 2.80259 13.9621
1 12.2571 1.80962 14.7965
2 5.30171 1.26179 0.393819
1 4.6294 1.2374 1.07473
1 6.0797 1.49519 0.900257
2 2.71306 3.51944 12.8748
1 2.00031 4.02471 12.4838
1 2.66053 2.67709 12.4232
2 5.43097 6.8239 1.92707
1 6.37077 6.67916 2.03692
1 5.15967 5.95097 1.64313
2 11.8451 13.4516 1.06927
1 12.3835 13.5563 1.85374
1 12.3543 13.97 0.446213
2 13.3405 13.5795 3.14933
1 13.0045 13.3061 4.00287
1 14.2887 13.6134 3.27623
2 7.25992 0.521278 9.17424
1 7.54407 0.0824293 8.37243
1 8.03663 0.455684 9.72979
2 0.3386 10.4104 13.3924
1 0.384532 10.933 12.5918
1 1.27442 10.3438 13.5823
2 12.3235 12.4279 5.41117
1 11.6984 11.8572 4.96428
1 12.7904 11.7996 5.962
2 6.90416 11.6134 2.29381
1 6.5928 10.9123 1.72127
1 6.98633 12.3167 1.64978
2 13.4319 10.6239 7.08977
1 12.6126 10.2637 7.42938
1 13.9276 10.7991 7.88963
2 11.0045 1.70282 11.522
1 10.2757 2.32338 11.5289
1 11.7448 2.23889 11.2379
2 14.6051 4.95801 12.57
1 14.3633 5.87747 12.4587
1 13.7865 4.59961 12.9131
2 7.35271 4.61798 1.35128
1 8.28615 4.4851 1.18616
1 6.93196 4.21677 0.590869
2 11.1191 4.36268 3.41426
1 12.0184 4.19076 3.69338
1 10.6906 4.5884 4.23986
2 5.04205 4.13311 13.8038
1 4.71725 4.87454 14.3147
1 4.21403 3.83164 13.43
2 13.9443 4.57157 3.99584
1 13.7133 4.69217 4.91688
1 14.0515 5.46073 3.658
2 3.10319 11.125 5.86982
1 3.94471 11.0559 5.41894
1 3.13624 12.0054 6.24407
2 14.0483 10.0587 4.30706
1 14.9236 10.42 4.44705
1 13.8306 9.74092 5.18333
2 12.2387 5.4835 10.29
1 12.4302 4.54578 10.3053
1 13.0662 5.83278 10.6208
2 3.12639 12.0909 10.0127
1 3.76176 12.3901 9.36225
1 3.71874 11.6186 10.5977
2 10.1244 5.50247 5.67544
1 10.0598 6.44536 5.52369
1 10.7478 5.48789 6.4017
2 7.90029 3.59075 5.69372
1 8.62446 4.21414 5.75032
1 7.2803 3.99725 6.29921
2 8.56187 3.51574 11.4872
1 8.53022 4.28775 12.0522
1 8.01639 2.91653 11.9967
2 12.9623 10.6892 11.6957
1 13.8898 10.5875 11.4821
1 12.9502 11.615 11.9385
2 8.55653 5.76448 13.5462
1 9.1011 5.20001 14.0948
1 7.74815 5.83789 14.0535
2 14.0009 7.46291 12.1842
1 13.3427 7.9202 12.7076
1 14.3449 8.16496 11.6319
2 8.86539 4.16931 8.79299
1 9.45019 4.92218 8.87922
1 8.74888 3.87817 9.69736
2 6.58368 5.09839 7.44796
1 7.34377 4.8261 7.96211
1 6.22455 5.7797 8.01635
2 12.0573 4.67941 13.5689
1 11.8722 5.53945 13.1917
1 11.8837 4.81461 14.5004
2 11.4092 2.25433 7.98492
1 11.222 1.31756 7.9246
1 10.5339 2.62174 8.1077
2 10.3802 6.80996 8.93993
1 9.80423 7.02985 9.67213
1 11.0768 6.32959 9.38742
2 14.0822 7.71096 6.63274
1 14.2604 7.22528 7.43809
1 13.9656 8.5973 6.97485
2 8.89635 7.28434 11.1642
1 8.80897 6.78385 11.9754
1 9.47262 8.00362 11.4226
2 9.08732 14.0215 1.69781
1 9.99365 14.2617 1.50513
1 9.25042 13.2766 2.27634
2 12.2607 8.78148 13.6936
1 11.6273 9.14917 14.3099
1 12.5514 9.57804 13.2495
2 3.00108 0.939631 11.8713
1 3.66047 0.582324 11.2765
1 2.18459 0.578157 11.5264
2 6.19259 9.68582 0.53338
1 6.78763 8.95688 0.708911
1 5.34438 9.25186 0.441475
2 6.1462 3.68816 3.6374
1 6.72293 3.95897 2.92306
1 6.77716 3.44526 4.31498
2 5.05817 11.7345 12.0058
1 5.29812 12.6478 12.1621
1 5.70885 11.2892 12.5486
2 0.56164 12.5525 4.77224
1 1.21506 12.7364 5.4471
1 15.2433 12.616 5.26474
2 2.078 13.3922 7.10448
1 2.76126 13.9528 7.47212
1 1.71592 12.985 7.89145
2 0.802411 2.9954 7.25381
1 1.54868 3.03798 6.6559
1 0.131067 3.35716 6.67532
2 0.263248 0.525783 14.2007
1 0.0835469 15.2788 14.7716
1 1.16566 0.751541 14.4264
2 0.143294 7.28902 9.01617
1 0.452826 6.4213 9.27597
1 0.863278 7.59311 8.46356
2 0.80361 12.2591 1.17408
1 0.748523 11.9537 0.268584
1 1.38038 11.6179 1.58921
2 3.35981 0.0973132 14.3526
1 3.37461 0.439083 13.4586
1 4.049 0.590821 14.7972
2 2.23396 4.03547 1.19579
1 2.6838 3.47138 0.566757
1 1.58463 3.43239 1.55758
2 1.05835 13.5476 13.5938
1 1.641 13.095 12.9839
1 1.13415 14.4665 13.3366
2 3.5696 8.13457 0.387312
1 2.65156 7.93645 0.572182
1 4.01915 7.72461 1.12628
2 1.67241 6.58207 11.9953
1 0.979693 7.22277 12.1561
1 1.17215 5.85162 11.6314
2 1.46601 9.3699 7.13461
1 1.3268 8.72138 6.44448
1 2.07053 9.97845 6.70982
2 7.41787 0.624779 3.34704
1 7.98236 15.505 2.88496
1 6.66651 0.0805888 3.5827
2 1.2 7.16257 5.12002
1 1.26254 7.04546 4.17207
1 0.355 6.76612 5.33226
2 5.2441 5.77711 11.3979
1 4.57682 5.37274 10.8434
1 5.43846 5.06719 12.0099
2 7.48577 13.9543 7.36488
1 7.33323 14.6657 6.74283
1 8.29903 13.6 7.00533
2 0.563486 11.5182 10.9148
1 1.50703 11.4996 10.7548
1 0.305407 12.2357 10.3363
2 2.98682 14.0019 3.46864
1 2.21539 14.3511 3.91491
1 2.6065 13.2993 2.94143
2 8.26858 0.969495 6.28299
1 8.2308 0.722669 5.35894
1 8.3214 1.92338 6.22352
2 7.3644 10.1664 13.4918
1 6.67363 9.94403 14.116
1 8.10914 9.70773 13.8806
318
 Atoms. Timestep: 1000
2 5.34265 10.3914 9.0521
1 5.34101 11.0796 9.71772
1 4.45995 10.4381 8.68427
2 10.1693 7.20386 5.33045
1 10.4069 8.03644 5.73907
1 9.25338 7.38481 5.11842
2 2.51909 6.88306 1.99182
1 3.00099 6.11403 1.68686
1 2.29449 7.30763 1.1636
2 11.028 6.40124 2.16926
1 11.0397 6.47689 3.1236
1 11.866 5.9902 1.95612
2 11.2119 3.06709 1.45684
1 11.2855 3.16085 2.40681
1 11.9619 3.54562 1.10309
2 12.4129 13.2679 6.67782
1 12.0925 12.4978 6.2077
1 13.3649 13.2111 6.59321
2 9.98884 14.2705 8.21507
1 10.6258 13.8052 7.67252
1 9.84938 15.0359 7.65712
2 14.5813 3.40791 3.34981
1 13.8188 3.61113 3.89207
1 14.8774 2.58488 3.73915
2 7.99357 11.0538 8.18775
1 7.97873 11.7035 7.48461
1 7.08327 10.8321 8.38462
2 8.49863 10.3805 11.0437
1 8.39191 10.5802 10.1135
1 8.18809 11.2137 11.3988
2 10.9924 0.778097 3.58685
1 10.4318 1.41445 4.03115
1 10.4561 0.56513 2.82282
2 6.58538 6.84534 6.83538
1 6.77401 7.17802 7.71309
1 7.38336 6.32289 6.75252
2 3.75618 4.67351 7.13406
1 4.16362 5.33333 6.5726
1 4.52573 4.12521 7.28812
2 2.24732 10.7778 11.7057
1 3.15944 11.0438 11.5876
1 2.25047 9.83974 11.8971
2 5.96629 13.0576 4.06097
1 6.1437 12.1373 3.86581
1 5.01598 13.1169 4.16087
2 4.86326 14.9688 12.1494
1 5.74747 0.26809 12.1622
1 4.41886 15.2641 12.9443
2 0.730134 12.7171 1.45732
1 0.777142 13.3229 2.19721
1 1.0389 11.8743 1.79053
2 2.49886 8.22911 7.40531
1 2.31942 8.58669 6.5355
1 2.81782 8.98347 7.90114
2 11.3154 0.76227 6.2457
1 11.8637 15.0527 6.35472
1 11.2579 0.702648 5.2919
2 2.90645 6.20028 9.16662
1 2.94104 6.96548 8.59225
1 2.91195 5.51337 8.49971
2 9.28803 7.75899 0.578903
1 9.58215 8.63907 0.343124
1 10.0283 7.4328 1.09099
2 4.94943 4.46756 12.7936
1 5.60265 3.82836 13.0788
1 4.1899 3.90181 12.9337
2 2.62321 8.13566 12.0685
1 3.46891 7.68818 12.034
1 2.09834 7.64329 11.4371
2 13.2812 9.88857 4.00526
1 13.9094 10.5534 4.28809
1 13.7708 9.64396 3.21971
2 10.2744 9.23236 7.26636
1 9.78478 10.0109 7.5325
1 10.1975 8.75611 8.09331
2 14.1959 2.19636 6.2365
1 15.1218 2.35357 6.42224
1 13.7971 2.79494 6.86841
2 0.968283 1.61499 14.5377
1 15.2066 1.99751 14.2505
1 0.832961 0.667844 14.5728
2 9.2493 10.2031 4.07378
1 9.08433 9.30956 4.37551
1 8.35187 10.3022 3.75535
2 4.23377 14.9009 6.40349
1 4.29672 14.8937 7.35879
1 3.922 14.0578 6.074
2 1.86865 1.25002 8.97003
1 2.70621 0.872665 9.2397
1 2.02488 1.64352 8.11134
2 13.8016 4.33766 10.8917
1 13.4503 4.77585 11.667
1 12.9976 4.01658 10.4829
2 10.4806 0.622956 10.5191
1 10.0716 15.18 9.82008
1 11.3279 0.665523 10.0752
2 6.84577 7.78268 9.33522
1 6.34528 7.27614 9.97518
1 6.56244 8.64372 9.64326
2 5.02974 1.79387 1.27173
1 5.38797 1.04407 1.74723
1 5.87003 2.06946 0.904858
2 7.70091 12.4642 12.3475
1 7.9271 12.4662 13.2778
1 7.99338 13.319 12.0308
2 5.83823 6.99353 2.0052
1 6.19326 6.98003 1.11615
1 5.36747 6.1603 2.03234
2 11.3428 11.4683 4.89245
1 10.445 11.147 4.80607
1 11.8388 10.7941 4.4277
2 9.97499 8.28867 12.1812
1 10.477 8.82016 12.7994
1 9.41267 8.96671 11.8062
2 14.2979 8.42306 14.4043
1 14.3488 9.33277 14.1104
1 13.5871 8.09638 13.8525
2 10.6379 11.5391 1.92517
1 11.0864 12.2281 2.41577
1 10.176 11.0506 2.60679
2 11.2637 3.47316 10.1043
1 10.44 3.96122 10.0961
1 11.0566 2.66137 9.64085
2 7.59679 7.83923 4.71273
1 7.04688 7.6267 3.95836
1 6.92772 7.87045 5.39675
2 7.9253 15.2063 11.6134
1 7.87595 1.09437 11.5879
1 8.8378 15.2149 11.3237
2 7.19916 12.9014 6.57721
1 6.6164 13.5823 6.91391
1 7.01665 12.8899 5.63745
2 13.8161 0.432745 4.24795
1 12.8822 0.495667 4.04664
1 13.9602 0.928497 5.05423
2 2.42746 2.10877 6.59184
1 2.71505 1.28314 6.20164
1 3.15002 2.70575 6.39647
2 13.691 2.7562 13.8028
1 12.9251 2.32664 13.4215
1 13.6725 3.57058 13.2998
2 3.66726 0.29511 14.4678
1 4.44547 0.599629 14.9349
1 3.21055 1.12928 14.3573
2 3.06375 2.72175 12.8793
1 2.69234 2.52585 12.0189
1 2.27134 2.72998 13.4165
2 7.55512 2.52459 0.966529
1 8.2666 1.92749 0.734414
1 8.02544 3.35778 0.931906
2 12.679 13.3152 2.50019
1 12.4623 14.1168 2.97684
1 13.4842 13.018 2.92441
2 14.7465 12.124 4.57532
1 0.390816 12.6123 4.16146
1 15.118 12.0468 5.45432
2 4.36837 14.9155 9.62491
1 5.25748 14.8993 9.27015
1 4.56732 14.9922 10.5583
2 14.5562 10.8952 13.4333
1 13.8823 11.3662 13.9237
1 15.2616 11.5425 13.4397
2 15.0325 9.9863 8.71504
1 14.4927 9.98181 9.50576
1 14.4862 9.51346 8.08688
2 5.67631 10.2843 4.05635
1 5.17455 10.1666 4.86315
1 5.16447 9.8915 3.34895
2 13.0543 9.1508 6.94006
1 12.2213 9.08791 7.40782
1 12.7742 9.69082 6.2008
2 10.9838 1.88253 12.6425
1 10.81 1.32037 11.8872
1 10.6326 2.69512 12.2778
2 13.8364 5.49208 13.6422
1 13.6549 5.47886 14.5822
1 14.3764 6.2803 13.5809
2 9.85026 1.48409 15.0209
1 10.3363 1.98432 0.609112
1 10.3707 1.72626 14.2547
2 12.5535 4.43505 4.73887
1 13.1339 5.19068 4.83236
1 12.6949 3.94729 5.55048
2 4.27209 4.51614 1.82714
1 4.56044 3.65029 1.53769
1 3.55024 4.34445 2.43216
2 14.934 6.48172 2.97099
1 0.814666 6.4352 2.84807
1 14.8296 6.61992 3.91261
2 2.33448 10.8167 2.61376
1 2.98131 10.3226 2.10966
1 2.07437 10.1238 3.22115
2 14.6232 8.92685 2.10694
1 14.7083 8.04832 2.47783
1 14.5535 8.65389 1.19198
2 14.5166 6.73183 8.73953
1 14.7797 7.6513 8.69623
1 14.9664 6.27809 9.45257
2 0.659008 13.1112 11.5171
1 0.744781 13.5164 12.3802
1 1.27782 12.3814 11.5503
2 10.4051 4.63241 6.57912
1 10.7334 5.24668 5.92223
1 10.6055 5.12819 7.37327
2 9.18699 2.6276 4.76255
1 8.25953 2.68867 4.53299
1 9.37436 3.50305 5.1018
2 7.58914 2.9264 12.5877
1 7.99877 3.77189 12.4033
1 7.96154 2.67651 13.4336
2 11.5685 12.2413 13.5087
1 12.0736 12.6141 12.7859
1 12.1799 12.5624 14.1718
2 9.51051 4.81227 13.039
1 9.76104 5.69131 12.7542
1 9.34771 4.94734 13.9728
2 13.6179 9.9037 11.1548
1 13.1117 10.7116 11.0667
1 14.2274 10.196 11.8327
2 7.56522 2.48294 8.87451
1 8.43473 2.42623 8.47782
1 7.68249 3.31223 9.33837
2 5.78729 3.27246 7.09975
1 6.40663 2.65729 7.49295
1 5.7748 3.02896 6.17392
2 13.6377 4.8656 1.2724
1 14.0741 4.04512 1.50276
1 13.9217 5.43465 1.98802
2 9.95442 2.29389 7.71494
1 10.0928 3.06589 7.16588
1 10.4642 1.73934 7.12397
2 11.8676 6.14536 8.71682
1 11.3233 6.81417 9.13273
1 12.7139 6.44366 9.05065
2 14.6121 7.29736 5.47577
1 15.1601 7.15997 6.24874
1 13.9074 7.84543 5.82154
2 9.85843 7.59739 9.62149
1 8.94507 7.88404 9.63692
1 10.1026 7.72812 10.5379
2 8.60078 14.7151 1.4638
1 8.92224 0.256444 0.798705
1 8.5697 13.9066 0.951821
2 10.7411 9.90181 14.4263
1 10.9985 10.1847 0.236342
1 10.9716 10.7018 13.9535
2 1.26035 2.66892 11.0407
1 1.42728 2.19048 10.2284
1 0.327469 2.81327 10.8809
2 4.27077 9.36201 1.43685
1 4.88182 8.68808 1.73531
1 3.60554 8.9257 0.904208
2 8.76763 5.26312 0.910024
1 8.8336 6.21144 0.79618
1 9.46712 5.1685 1.55687
2 5.00505 12.3114 10.8402
1 5.46533 12.3097 11.6797
1 4.71031 13.2139 10.7176
2 15.0443 12.3979 7.14328
1 15.0013 12.9931 7.89198
1 15.2204 11.5545 7.56068
2 15.0415 14.5387 9.10192
1 0.639769 15.2171 8.98861
1 0.377386 14.024 9.8011
2 12.6282 0.297549 8.95117
1 13.5321 15.1481 9.18004
1 12.6834 0.641156 8.05925
2 13.5458 13.0231 15.0763
1 14.4727 13.0917 0.238493
1 13.0708 13.0869 0.837439
2 13.7336 4.32304 7.38193
1 14.4125 4.96689 7.58501
1 12.9962 4.71564 7.84958
2 0.912086 14.4289 3.54401
1 1.44219 15.0607 3.05767
1 15.1622 14.9071 3.68411
2 1.4369 14.039 14.3065
1 2.34708 14.3254 14.2282
1 1.54432 13.5793 15.1395
2 2.07869 3.58463 3.27866
1 1.12142 3.59894 3.2716
1 2.20291 2.72823 2.86907
2 2.15482 1.28032 1.9435
1 2.01908 1.60679 1.05378
1 3.09762 1.11472 1.96215
2 2.12536 8.01236 14.8127
1 1.18101 8.07077 14.6663
1 2.46271 7.95151 13.9188
2 1.24488 5.68938 11.0713
1 1.90218 5.66861 10.3755
1 0.658003 4.9504 10.9098
2 2.62452 10.6316 8.88138
1 2.48563 10.7489 9.82138
1 1.7587 10.5582 8.47942
2 6.33897 0.289981 2.87046
1 7.12157 15.1915 2.34459
1 6.2469 14.4877 3.25936
2 2.04801 8.67827 4.3721
1 2.35285 8.00552 3.76292
1 1.26101 8.33322 4.79422
2 5.01309 6.38817 10.9444
1 4.37636 5.9645 10.3685
1 5.05342 5.79561 11.6953
2 6.76879 15.0351 8.58613
1 6.93702 0.845992 8.92727
1 7.57581 14.5357 8.71256
2 13.0807 13.1292 11.3494
1 14.0323 13.0262 11.3284
1 12.9865 13.9945 10.9507
2 3.12878 13.1712 4.10234
1 3.07997 12.4673 3.45523
1 2.3669 13.7388 3.98395
2 6.18678 2.79789 4.36813
1 5.86026 1.91243 4.20714
1 6.19888 3.19804 3.49847
2 9.37083 12.9187 14.7781
1 10.1197 12.6878 14.2281
1 9.74068 12.4324 0.447451
318
 Atoms. Timestep: 2000
2 5.77832 10.4001 8.73276
1 5.45035 10.8822 9.49173
1 4.94893 10.1153 8.3492
2 10.2003 5.64923 5.34911
1 9.78378 6.51064 5.32584
1 9.38913 5.15398 5.23572
2 2.98459 7.17125 2.3378
1 3.07882 6.37093 1.82142
1 3.5605 7.71013 1.79557
2 11.3057 9.83162 0.98459
1 11.6605 10.2526 1.76753
1 11.851 9.04651 0.937305
2 10.416 4.05483 14.9091
1 10.2997 4.56348 0.716187
1 11.3645 3.93003 14.8792
2 11.818 11.4328 8.91321
1 11.5242 10.6924 8.3826
1 12.6274 11.676 8.46392
2 9.59804 13.0525 9.88434
1 9.01009 12.6032 9.27726
1 10.4295 12.6725 9.60075
2 14.6052 3.68915 4.3006
1 14.6912 4.61216 4.53884
1 14.4541 3.26449 5.14495
2 7.56423 12.4783 8.4306
1 7.04588 13.0599 7.8746
1 6.93755 11.7621 8.53299
2 9.23862 10.5189 11.8811
1 9.85639 11.0936 12.333
1 8.51384 10.6901 12.4823
2 10.0727 0.597547 3.13369
1 10.4521 0.802317 2.27915
1 9.42577 1.29694 3.22491
2 6.60807 8.26889 6.97837
1 5.68613 8.1866 6.73477
1 6.58437 9.05858 7.51864
2 4.40882 4.03898 6.74774
1 4.44805 4.16785 5.80015
1 5.32485 4.17157 6.99141
2 3.29961 9.47727 11.5195
1 4.04963 10.0481 11.3529
1 3.59429 8.57006 11.4406
2 5.42951 13.7923 3.38025
1 5.77222 13.054 2.87667
1 4.49899 13.5684 3.37356
2 4.71962 13.9259 11.4952
1 5.59655 14.2589 11.3049
1 4.61059 14.4109 12.3131
2 13.6928 12.417 0.438105
1 14.4953 11.9682 0.704055
1 13.462 11.9076 14.6567
2 2.42523 7.76292 6.66512
1 3.13845 7.64466 6.03788
1 1.70484 7.89171 6.04825
2 10.9387 1.80724 6.3924
1 10.1309 1.41918 6.72856
1 10.8298 1.79257 5.44161
2 3.81501 6.35272 8.58293
1 3.15613 6.88654 8.13909
1 4.19592 5.74628 7.94793
2 9.45576 7.99141 13.459
1 9.74623 8.47815 14.2302
1 8.99754 8.61531 12.8961
2 4.33714 4.4929 12.9887
1 5.00317 4.00929 12.5002
1 3.94789 3.75046 13.4506
2 3.27056 6.52568 14.5806
1 3.78781 5.98213 13.9864
1 2.36124 6.31879 14.3651
2 14.7589 11.1906 3.78003
1 14.5314 12.1196 3.81673
1 13.9227 10.8935 3.42147
2 10.9248 9.41688 7.29615
1 10.9984 8.47315 7.15455
1 10.2109 9.49096 7.92939
2 14.443 3.11967 6.88339
1 14.9675 3.6446 7.48791
1 13.6521 3.16349 7.42052
2 0.762779 1.9701 12.8144
1 1.08719 2.40181 12.0241
1 15.1048 2.61789 13.0782
2 9.8747 10.0654 4.7308
1 9.41163 9.25475 4.94185
1 10.3201 10.271 5.55264
2 3.10812 14.9319 7.01155
1 2.83827 14.0645 7.31308
1 2.45032 0.258764 6.39545
2 13.9755 0.84382 9.89831
1 14.0454 1.55349 9.25992
1 14.8929 0.629121 10.0668
2 12.2931 1.4845 13.2255
1 12.8788 2.2198 13.4055
1 11.9783 1.5513 12.3241
2 10.6295 13.9631 12.1543
1 10.1851 13.6317 11.374
1 10.6587 13.2093 12.7435
2 6.83805 8.3953 10.8388
1 6.14676 7.73492 10.8848
1 6.42043 8.95255 10.1823
2 3.67496 3.97265 1.77202
1 2.75565 4.19213 1.92279
1 3.67555 3.27481 1.11695
2 7.49791 12.287 13.1712
1 7.75923 12.6471 14.0186
1 7.31952 13.071 12.6519
2 7.28278 6.1938 3.12629
1 7.49026 6.01183 2.20982
1 6.59068 5.56936 3.34351
2 12.0248 10.6182 3.4931
1 11.2619 10.3056 3.97928
1 11.8962 11.5644 3.55831
2 7.90199 6.07845 10.0226
1 7.5887 6.92362 10.3445
1 8.57346 5.97395 10.6966
2 3.87121 10.8693 0.373485
1 4.4572 11.2267 1.04052
1 3.54927 11.6843 14.9837
2 8.98604 11.2958 2.33555
1 8.9643 10.8276 3.17
1 9.74119 10.9331 1.87265
2 11.7123 1.68522 10.6177
1 11.6438 2.11629 9.76592
1 12.5681 1.27958 10.4792
2 8.57632 7.60402 5.04909
1 8.21873 7.0948 4.32182
1 7.80573 7.85939 5.55612
2 7.53343 14.3383 11.144
1 7.47227 15.212 10.7579
1 8.34147 13.9728 10.784
2 5.57698 13.9553 6.299
1 4.81691 14.4307 6.63421
1 5.40575 13.9009 5.35891
2 13.2685 15.203 6.0997
1 12.4209 0.433408 6.48292
1 13.8839 0.573439 6.73494
2 2.8995 2.29189 8.71881
1 2.95785 1.48875 8.20151
1 3.3895 2.9333 8.20444
2 10.7138 1.26579 0.48355
1 10.214 2.04007 15.2205
1 11.4212 1.26491 14.8341
2 4.21054 15.0509 14.2334
1 5.04068 15.2174 14.6798
1 3.75982 0.871117 14.4521
2 2.41619 2.27804 14.935
1 1.85578 2.26573 0.715547
1 1.85812 2.08432 14.182
2 7.17278 5.41535 0.562159
1 7.04317 4.65926 14.9851
1 6.66198 6.11041 15.1426
2 11.2858 13.209 3.33595
1 10.5914 13.8136 3.59737
1 11.1504 13.2182 2.3885
2 13.7489 14.0255 3.73602
1 13.8131 14.711 4.4009
1 12.7986 13.9135 3.71391
2 2.29458 13.3531 10.3017
1 3.13674 13.7803 10.4578
1 1.83395 13.4061 11.139
2 1.02218 11.195 0.739872
1 1.59359 11.8309 0.309535
1 1.67803 10.7285 1.25783
2 15.2266 8.36259 8.83516
1 14.4275 8.18431 9.3308
1 14.9145 8.97275 8.16703
2 6.12999 11.635 2.09523
1 6.97388 11.681 1.64599
1 6.25933 10.8026 2.54959
2 13.7485 9.76667 6.79292
1 12.8108 9.60655 6.89821
1 13.7371 10.7112 6.94752
2 9.42591 1.33466 12.1444
1 10.0616 0.621108 12.1971
1 9.97779 1.93914 11.6483
2 14.0612 3.88799 13.4963
1 13.8023 4.21875 14.3563
1 14.6944 4.55332 13.227
2 8.12498 2.96203 13.9588
1 8.90863 3.46525 14.1796
1 8.34995 2.30862 13.2966
2 0.36731 6.27766 4.80223
1 15.0682 5.96608 5.65799
1 0.462188 7.22804 4.86412
2 5.64694 4.32393 3.51125
1 5.84808 3.40555 3.3318
1 4.77787 4.36331 3.11221
2 0.384146 6.73617 2.26816
1 1.33146 6.62471 2.34736
1 15.0384 6.61745 3.15455
2 2.53096 12.0822 3.23737
1 2.18112 12.9728 3.25919
1 1.79273 11.5757 3.57579
2 14.2069 8.41516 0.358525
1 14.4573 7.85219 1.09099
1 14.9557 8.99985 15.2373
2 1.75761 6.18601 10.3038
1 1.17785 6.87961 9.98934
1 2.4808 6.24919 9.68
2 1.08652 10.4102 12.6657
1 1.45602 10.9861 13.335
1 1.84665 9.94661 12.3145
2 11.898 5.32419 7.61618
1 11.5515 5.17157 6.73715
1 11.1895 5.89635 7.91059
2 10.9081 4.29764 2.71902
1 10.3513 3.63285 3.1242
1 10.7395 5.04124 3.29759
2 6.34896 3.70638 11.6281
1 6.4992 4.62842 11.4199
1 7.21332 3.45675 11.9547
2 11.0585 11.495 13.6611
1 11.8386 11.1222 13.2506
1 11.0972 11.1702 14.5606
2 7.0759 5.16653 7.46575
1 6.87919 6.05435 7.16711
1 7.53748 5.43744 8.25923
2 12.4228 8.57677 10.187
1 12.0089 9.4358 10.2697
1 12.6737 8.39697 11.093
2 6.66305 1.68647 10.0321
1 6.48374 2.40451 10.639
1 5.82085 1.33807 9.7399
2 8.03414 3.2813 5.92801
1 8.0244 2.46812 6.43269
1 7.60347 3.90156 6.51611
2 12.938 5.10208 0.849444
1 12.1846 4.83615 1.37642
1 13.4479 5.5903 1.49583
2 12.3833 3.00558 8.28429
1 12.0883 3.91612 8.27971
1 11.7994 2.629 7.62596
2 9.8506 6.99155 8.30019
1 9.22314 6.38749 8.69707
1 9.67087 7.73019 8.88169
2 0.602187 8.8854 5.02519
1 15.0433 9.35002 5.65217
1 0.432959 9.45582 4.27549
2 9.24005 9.21189 9.62446
1 8.33094 9.05461 9.87916
1 9.41199 9.81306 10.3491
2 6.68133 0.569 0.36509
1 7.13873 1.36484 15.0893
1 7.32376 14.9212 15.0607
2 13.0609 8.36675 12.8744
1 13.0155 8.18429 13.8128
1 13.8743 8.86936 12.83
2 1.55011 3.42328 10.6999
1 1.93519 2.94849 9.96338
1 1.93592 4.28628 10.5504
2 5.98837 9.1124 2.96359
1 6.4299 8.27861 3.12467
1 5.62188 8.82807 2.1264
2 9.31304 5.50531 12.5799
1 9.25384 6.32525 13.07
1 10.2087 5.23714 12.7846
2 5.16446 11.3989 11.1668
1 5.99789 11.446 11.635
1 4.90693 12.3173 11.2451
2 13.9947 12.3525 7.58582
1 14.9186 12.1683 7.41669
1 13.8983 13.1415 7.05282
2 1.70491 12.387 7.81609
1 1.65447 12.8516 8.65137
1 2.58187 12.0265 7.68558
2 13.2516 13.6778 11.7648
1 12.3666 13.9567 11.9995
1 13.2277 14.005 10.8657
2 11.2474 13.3303 0.84976
1 12.1394 12.9837 0.868173
1 11.2522 13.8606 15.0483
2 14.6204 6.12131 7.34382
1 14.7959 6.68116 8.10004
1 13.6803 5.95304 7.40651
2 15.0357 14.4775 1.53118
1 14.5979 13.8806 0.924461
1 14.4706 14.3808 2.2976
2 2.2832 13.3209 14.6662
1 3.02373 13.9071 14.8214
1 1.7148 13.8631 14.1194
2 1.14955 2.71616 2.33137
1 1.55064 2.24226 3.05982
1 0.441641 3.21428 2.73963
2 0.702175 14.2816 12.5665
1 0.59716 15.233 12.5666
1 14.7662 14.0934 12.6818
2 4.80901 8.48298 0.633151
1 4.44138 9.32163 0.354603
1 4.40205 7.86933 15.017
2 0.730576 6.15873 13.1785
1 15.0922 6.81683 13.464
1 0.882926 6.33186 12.2496
2 3.05387 10.0716 8.42005
1 2.45431 10.2945 9.13205
1 2.60946 9.30264 8.06332
2 6.03008 1.70191 2.75367
1 6.43446 1.27643 1.99767
1 5.74031 0.943383 3.26037
2 4.20638 8.06415 4.67136
1 4.75624 8.64538 4.14608
1 3.58926 7.80415 3.98754
2 4.64545 6.98254 11.1753
1 4.40798 6.7446 10.2792
1 4.13103 6.35853 11.6872
2 8.04604 1.04314 7.32599
1 7.70118 1.19635 8.20559
1 7.73251 15.1593 7.11431
2 13.6443 11.2633 12.7603
1 14.5065 10.9108 12.5399
1 13.6464 12.0865 12.2722
2 1.3787 14.809 4.03184
1 0.530132 14.642 4.4419
1 1.1567 14.7747 3.10146
2 8.41768 2.50095 3.45504
1 8.22281 2.83637 4.33003
1 7.5145 2.36663 3.16814
2 8.55789 13.6862 0.728052
1 9.50287 13.8125 0.812586
1 8.3114 13.4194 1.61357
318
 Atoms. Timestep: 3000
2 6.06773 10.0262 7.85594
1 5.68293 10.7899 7.42585
1 5.33669 9.54596 8.24495
2 9.44685 5.22207 3.14105
1 8.83691 5.94988 3.02014
1 9.81096 5.19436 4.02594
2 3.3828 8.1228 2.29773
1 4.28335 8.01775 1.99064
1 3.049 8.99675 2.09491
2 11.6404 7.3042 0.773438
1 11.5466 7.63957 1.66511
1 12.3232 7.89074 0.447751
2 11.2244 4.71894 13.4263
1 11.4753 4.64968 14.3475
1 10.9751 5.63431 13.2987
2 13.0003 11.351 9.81623
1 13.4076 11.3589 10.6825
1 12.4607 12.1349 9.91934
2 7.174 12.1636 11.3504
1 8.00193 12.3244 11.8032
1 6.87592 13.0567 11.1774
2 1.7605 2.52707 2.81612
1 1.75678 3.14241 2.08284
1 1.18896 2.96264 3.44855
2 4.61333 12.363 7.30096
1 3.78163 12.0887 7.68747
1 4.61795 13.2927 7.52887
2 10.1154 9.94453 13.955
1 10.3361 10.871 14.0516
1 10.1381 9.91063 12.9986
2 10.7053 14.2792 4.59699
1 10.4316 14.0122 3.71942
1 10.1102 14.9954 4.81885
2 6.03759 9.35216 5.32438
1 5.32027 8.7213 5.26255
1 6.18795 9.36839 6.26962
2 5.05381 4.76631 5.63446
1 4.90963 4.63119 4.69781
1 5.99019 4.95676 5.69163
2 2.02663 9.81263 11.1412
1 2.66065 10.3709 11.5915
1 2.11574 9.00826 11.6525
2 4.79943 14.4052 4.32011
1 4.72671 13.4616 4.46333
1 4.64644 14.7829 5.18632
2 3.99558 14.5357 11.7841
1 4.73678 14.5645 11.179
1 4.37209 14.7621 12.6346
2 13.477 9.03765 0.46557
1 13.5156 9.02024 1.4219
1 13.7392 9.92911 15.2422
2 3.31876 9.18915 7.30261
1 3.70536 8.87877 6.48373
1 2.43157 9.49361 7.11139
2 12.5672 1.693 9.26481
1 11.9283 1.55689 9.96454
1 12.0823 2.177 8.59626
2 3.89947 6.78489 8.50658
1 3.74518 7.53454 7.93163
1 4.33163 6.15519 7.92946
2 9.35344 7.33016 14.3621
1 10.0592 7.13166 14.9776
1 9.50858 8.26862 14.2545
2 6.34025 2.85817 13.3038
1 5.69287 2.62658 12.6377
1 6.6179 2.02004 13.6736
2 2.53362 7.62066 12.3058
1 2.59187 6.73471 12.6636
1 1.7553 7.92389 12.7734
2 15.0573 14.0752 3.83701
1 15.078 14.9125 3.37348
1 14.3209 14.2514 4.42267
2 9.35514 10.0535 6.19576
1 9.63184 9.26142 6.65668
1 8.62767 10.3367 6.7498
2 14.2109 3.82366 3.71831
1 14.1778 4.1055 2.80407
1 13.9327 4.62481 4.16229
2 0.285002 1.93877 12.4996
1 0.943285 2.42372 12.0018
1 14.6063 2.59232 12.3598
2 9.60419 8.72135 3.99223
1 8.92988 8.05126 4.10456
1 9.41034 9.19621 4.80049
2 2.17064 0.667005 7.51533
1 1.5171 15.2028 8.0326
1 1.56939 1.13913 6.93917
2 1.54845 3.51192 10.8273
1 1.52244 4.40268 10.4777
1 1.18652 3.13512 10.0252
2 13.1701 1.54767 2.21397
1 13.5639 2.29076 2.6712
1 13.7207 1.57102 1.43127
2 9.56449 12.5941 12.3465
1 10.2078 12.1296 11.811
1 10.0125 12.8651 13.1479
2 7.21386 9.07169 10.4208
1 6.27761 8.90392 10.5287
1 7.26084 10.0078 10.6153
2 3.64302 5.0043 0.875106
1 3.17835 4.79562 15.0713
1 4.53235 5.22682 0.599535
2 6.2305 10.7413 13.4073
1 6.76629 10.9108 14.1823
1 6.79058 11.1133 12.7259
2 6.41407 6.24222 2.07146
1 6.59453 5.66691 1.32793
1 5.9383 5.56229 2.54863
2 12.2918 8.57628 3.28785
1 11.3489 8.72717 3.35533
1 12.5945 9.43793 3.57474
2 7.38634 6.33118 8.56107
1 7.00805 7.00481 9.12628
1 7.22614 5.59809 9.15544
2 1.9639 10.93 14.3932
1 2.64654 11.3341 13.8574
1 1.85602 11.47 15.1762
2 8.49522 10.4643 1.64018
1 9.12889 9.90271 2.08679
1 7.82476 9.85744 1.32615
2 11.236 1.81121 11.6614
1 10.4848 2.35007 11.9097
1 11.9621 2.42858 11.751
2 7.38362 7.25953 4.24874
1 6.85293 6.99273 3.49805
1 6.8553 7.94552 4.65695
2 6.28336 14.9167 10.6245
1 6.17603 14.968 9.67465
1 7.16876 0.264222 10.7081
2 4.76272 15.2169 7.86271
1 3.81644 0.351908 7.83383
1 4.93538 1.1507 7.81667
2 14.7248 3.04316 8.6345
1 13.9185 2.70097 9.02086
1 14.9334 2.36851 7.98824
2 4.70114 2.83475 7.36213
1 3.88295 3.14586 7.74959
1 4.71691 3.46794 6.64437
2 10.0814 13.744 1.86938
1 9.20821 13.3539 1.91084
1 9.84317 14.6658 1.77033
2 4.63948 0.341863 14.2772
1 5.39261 0.249525 14.8608
1 4.00357 0.356225 14.9925
2 2.94772 4.9654 13.2181
1 3.67575 4.48488 12.8239
1 2.23279 4.36315 13.012
2 6.68716 4.77779 14.9737
1 6.48342 3.98248 14.4814
1 6.84566 5.37605 14.2434
2 13.1362 11.1632 3.58024
1 12.8568 11.6533 4.3536
1 14.0175 10.8385 3.76521
2 12.3986 12.3642 5.78099
1 12.7308 13.052 6.358
1 11.622 12.8465 5.49703
2 1.05867 14.1224 11.4742
1 1.92211 14.1056 11.8872
1 0.680302 14.9584 11.7469
2 0.351758 8.603 13.6336
1 0.744458 9.45175 13.838
1 14.6157 8.64151 14.2363
2 12.412 7.54188 6.89581
1 11.8386 7.38908 7.6469
1 12.6668 8.4635 6.94121
2 5.43629 11.8491 4.64901
1 5.18319 11.8495 5.57221
1 5.8285 10.9844 4.52745
2 13.1739 10.2837 7.34618
1 12.8605 10.9296 6.71288
1 13.119 10.7663 8.17111
2 9.17197 15.1649 10.9597
1 9.40988 14.3366 11.3764
1 10.0098 0.619512 10.92
2 13.4107 3.65956 12.1332
1 12.7428 4.16722 12.5942
1 13.6774 4.30601 11.4795
2 9.54245 1.39799 1.03689
1 9.84895 1.88095 1.80445
1 9.44206 2.09283 0.386145
2 1.06472 7.1336 4.81948
1 0.996627 7.6122 5.64571
1 15.1568 6.86377 4.73524
2 4.77813 4.29051 3.03393
1 4.15591 4.47673 2.33071
1 4.66953 3.36275 3.24329
2 1.27108 6.14316 1.99132
1 2.14726 6.47245 1.79077
1 1.3369 6.26254 2.93882
2 2.94277 10.8275 2.54908
1 2.83523 11.677 2.12109
1 3.71972 10.8712 3.10657
2 15.0639 6.04182 14.6909
1 0.65318 6.23206 0.408926
1 15.2516 6.75851 14.0847
2 1.65599 5.82245 9.57393
1 1.11972 5.95883 8.79278
1 2.48364 6.23407 9.32511
2 14.4507 11.8093 11.8623
1 14.7921 12.703 11.8296
1 15.2079 11.3599 11.4869
2 13.5379 6.34705 4.72614
1 13.3388 6.96242 4.02043
1 13.0816 6.77382 5.45142