318
 Atoms. Timestep: 0
2 2.77421 8.83133 9.47797
1 2.21443 8.28357 10.0283
1 2.15763 9.20906 8.85077
2 10.4844 8.60306 5.07811
1 10.9144 8.96535 5.85274
1 9.73231 9.18545 4.97093
2 1.63275 6.57489 2.11496
1 1.92808 5.69765 1.8711
1 0.836816 6.65027 1.58862
2 10.2913 7.83745 2.2958
1 11.0411 8.41594 2.1566
1 10.2775 7.82352 3.2528
2 10.7864 5.40705 0.924085
1 11.0216 4.75738 1.58655
1 10.6869 6.17295 1.48953
2 8.82385 12.9944 5.23974
1 8.09099 12.4065 5.42277
1 9.29017 12.4981 4.56709
2 10.115 12.7202 10.2646
1 9.61852 12.2176 9.6187
1 9.55667 12.6781 11.0409
2 14.2025 1.95095 2.91322
1 14.1063 2.84599 3.23862
1 13.485 1.54074 3.39607
2 8.80712 10.6474 8.78224
1 8.13564 10.8456 8.1295
1 8.32241 10.0866 9.38789
2 9.04063 12.0581 12.6964
1 8.35874 11.4182 12.9007
1 9.48745 12.1457 13.5384
2 10.6189 0.990838 2.13264
1 10.4102 1.01446 3.06651
1 9.87576 1.41735 1.70592
2 4.68293 8.09936 7.82838
1 5.43455 7.9751 8.40791
1 4.04055 8.43344 8.45445
2 3.4179 4.6766 9.6629
1 3.16872 5.22244 8.91711
1 3.78275 3.91698 9.20892
2 2.98895 10.2791 13.0475
1 3.68423 10.7746 12.6147
1 3.3707 9.40135 13.0581
2 5.51068 13.2191 4.64322
1 5.6993 12.7865 3.81042
1 4.68338 13.6638 4.45883
2 5.02322 13.6647 8.38582
1 5.8733 13.4658 7.99335
1 5.18187 14.5753 8.63449
2 2.34347 10.6895 2.66121
1 2.0526 10.7606 3.57037
1 2.89181 9.90516 2.67804
2 2.70423 6.24082 7.58275
1 2.46947 6.15861 6.65843
1 3.41712 6.87834 7.543
2 11.0408 14.7128 5.88909
1 10.144 14.4294 5.7107
1 11.5016 13.8801 5.78643
2 0.833438 4.58827 10.0994
1 0.589455 3.69616 10.3461
1 1.77951 4.52593 9.96791
2 8.19561 7.88294 0.528517
1 8.79754 7.74139 15.2978
1 8.82101 7.86484 1.25294
2 6.96551 2.34196 13.3853
1 6.19886 2.8986 13.5217
1 6.61725 1.47037 13.5731
2 4.00606 7.78548 12.6618
1 4.56288 7.16471 12.1919
1 3.16041 7.34832 12.5618
2 12.4691 9.41535 2.24311
1 13.0063 9.80454 2.93317
1 13.0859 8.76856 1.90042
2 11.1284 9.58737 7.82559
1 10.3897 10.0783 8.18544
1 10.9849 8.73861 8.24424
2 13.1417 4.36192 6.58955
1 12.408 3.86927 6.9574
1 13.8401 4.14139 7.20584
2 1.97492 0.791292 1.59177
1 1.82641 15.3989 1.90453
1 1.23493 0.902113 0.994805
2 7.9529 9.72858 4.32658
1 7.42858 10.3144 3.7806
1 7.26884 9.19038 4.72486
2 3.34422 1.75097 3.75458
1 2.88743 1.34404 3.01839
1 4.23814 1.87876 3.43709
2 4.58495 2.6207 8.54664
1 5.4441 2.81467 8.17185
1 4.44347 1.71538 8.26985
2 14.4926 0.244256 11.5284
1 14.006 14.9687 11.8075
1 14.5111 0.763705 12.3321
2 12.7749 13.4331 11.9619
1 12.4774 13.5114 11.0555
1 12.0167 13.7819 12.4306
2 6.62103 7.28048 9.59992
1 6.08228 6.88252 10.2837
1 7.43658 7.40198 10.0861
2 4.67481 5.57616 4.98255
1 5.17602 4.97231 4.43448
1 5.26218 5.69386 5.72913
2 5.51835 14.0924 13.1373
1 6.22646 13.8852 13.7471
1 4.7684 14.0488 13.7305
2 3.77228 8.33863 3.32666
1 4.4727 7.78714 2.97809
1 3.04194 7.72259 3.26891
2 9.95054 11.5653 3.38123
1 9.3674 10.8072 3.4204
1 10.5461 11.3406 2.66634
2 10.458 9.52316 11.4481
1 10.0593 10.3925 11.4099
1 11.3828 9.76082 11.3799
2 14.165 7.13422 0.22991
1 13.3378 7.22105 15.2561
1 14.7983 7.37014 15.052
2 11.1998 10.4505 0.102227
1 11.6778 11.2538 15.3963
1 11.5707 10.2308 0.956873
2 13.0095 2.97124 10.1358
1 12.6502 2.58114 9.33891
1 13.8941 2.60697 10.1667
2 5.41839 9.17451 5.41011
1 4.7851 8.88065 4.75526
1 5.08877 8.71639 6.18323
2 6.927 13.6589 15.3565
1 7.84831 13.5432 0.0889596
1 6.7376 14.525 0.217349
2 6.81617 11.0319 6.89919
1 6.23068 11.7751 6.75406
1 6.42059 10.3598 6.34422
2 12.4551 1.42422 5.09076
1 12.3965 0.515354 5.38533
1 11.5849 1.7594 5.30675
2 2.4211 3.70266 5.26074
1 2.66218 2.99506 4.66291
1 3.11055 4.34795 5.10419
2 11.3679 2.1131 14.6135
1 11.4965 2.80259 13.9621
1 12.2571 1.80962 14.7965
2 5.30171 1.26179 0.393819
1 4.6294 1.2374 1.07473
1 6.0797 1.49519 0.900257
2 2.71306 3.51944 12.8748
1 2.00031 4.02471 12.4838
1 2.66053 2.67709 12.4232
2 5.43097 6.8239 1.92707
1 6.37077 6.67916 2.03692
1 5.15967 5.95097 1.64313
2 11.8451 13.4516 1.06927
1 12.3835 13.5563 1.85374
1 12.3543 13.97 0.446213
2 13.3405 13.5795 3.14933
1 13.0045 13.3061 4.00287
1 14.2887 13.6134 3.27623
2 7.25992 0.521278 9.17424
1 7.54407 0.0824293 8.37243
1 8.03663 0.455684 9.72979
2 0.3386 10.4104 13.3924
1 0.384532 10.933 12.5918
1 1.27442 10.3438 13.5823
2 12.3235 12.4279 5.41117
1 11.6984 11.8572 4.96428
1 12.7904 11.7996 5.962
2 6.90416 11.6134 2.29381
1 6.5928 10.9123 1.72127
1 6.98633 12.3167 1.64978
2 13.4319 10.6239 7.08977
1 12.6126 10.2637 7.42938
1 13.9276 10.7991 7.88963
2 11.0045 1.70282 11.522
1 10.2757 2.32338 11.5289
1 11.7448 2.23889 11.2379
2 14.6051 4.95801 12.57
1 14.3633 5.87747 12.4587
1 13.7865 4.59961 12.9131
2 7.35271 4.61798 1.35128
1 8.28615 4.4851 1.18616
1 6.93196 4.21677 0.590869
2 11.1191 4.36268 3.41426
1 12.0184 4.19076 3.69338
1 10.6906 4.5884 4.23986
2 5.04205 4.13311 13.8038
1 4.71725 4.87454 14.3147
1 4.21403 3.83164 13.43
2 13.9443 4.57157 3.99584
1 13.7133 4.69217 4.91688
1 14.0515 5.46073 3.658
2 3.10319 11.125 5.86982
1 3.94471 11.0559 5.41894
1 3.13624 12.0054 6.24407
2 14.0483 10.0587 4.30706
1 14.9236 10.42 4.44705
1 13.8306 9.74092 5.18333
2 12.2387 5.4835 10.29
1 12.4302 4.54578 10.3053
1 13.0662 5.83278 10.6208
2 3.12639 12.0909 10.0127
1 3.76176 12.3901 9.36225
1 3.71874 11.6186 10.5977
2 10.1244 5.50247 5.67544
1 10.0598 6.44536 5.52369
1 10.7478 5.48789 6.4017
2 7.90029 3.59075 5.69372
1 8.62446 4.21414 5.75032
1 7.2803 3.99725 6.29921
2 8.56187 3.51574 11.4872
1 8.53022 4.28775 12.0522
1 8.01639 2.91653 11.9967
2 12.9623 10.6892 11.6957
1 13.8898 10.5875 11.4821
1 12.9502 11.615 11.9385
2 8.55653 5.76448 13.5462
1 9.1011 5.20001 14.0948
1 7.74815 5.83789 14.0535
2 14.0009 7.46291 12.1842
1 13.3427 7.9202 12.7076
1 14.3449 8.16496 11.6319
2 8.86539 4.16931 8.79299
1 9.45019 4.92218 8.87922
1 8.74888 3.87817 9.69736
2 6.58368 5.09839 7.44796
1 7.34377 4.8261 7.96211
1 6.22455 5.7797 8.01635
2 12.0573 4.67941 13.5689
1 11.8722 5.53945 13.1917
1 11.8837 4.81461 14.5004
2 11.4092 2.25433 7.98492
1 11.222 1.31756 7.9246
1 10.5339 2.62174 8.1077
2 10.3802 6.80996 8.93993
1 9.80423 7.02985 9.67213
1 11.0768 6.32959 9.38742
2 14.0822 7.71096 6.63274
1 14.2604 7.22528 7.43809
1 13.9656 8.5973 6.97485
2 8.89635 7.28434 11.1642
1 8.80897 6.78385 11.9754
1 9.47262 8.00362 11.4226
2 9.08732 14.0215 1.69781
1 9.99365 14.2617 1.50513
1 9.25042 13.2766 2.27634
2 12.2607 8.78148 13.6936
1 11.6273 9.14917 14.3099
1 12.5514 9.57804 13.2495
2 3.00108 0.939631 11.8713
1 3.66047 0.582324 11.2765
1 2.18459 0.578157 11.5264
2 6.19259 9.68582 0.53338
1 6.78763 8.95688 0.708911
1 5.34438 9.25186 0.441475
2 6.1462 3.68816 3.6374
1 6.72293 3.95897 2.92306
1 6.77716 3.44526 4.31498
2 5.05817 11.7345 12.0058
1 5.29812 12.6478 12.1621
1 5.70885 11.2892 12.5486
2 0.56164 12.5525 4.77224
1 1.21506 12.7364 5.4471
1 15.2433 12.616 5.26474
2 2.078 13.3922 7.10448
1 2.76126 13.9528 7.47212
1 1.71592 12.985 7.89145
2 0.802411 2.9954 7.25381
1 1.54868 3.03798 6.6559
1 0.131067 3.35716 6.67532
2 0.263248 0.525783 14.2007
1 0.0835469 15.2788 14.7716
1 1.16566 0.751541 14.4264
2 0.143294 7.28902 9.01617
1 0.452826 6.4213 9.27597
1 0.863278 7.59311 8.46356
2 0.80361 12.2591 1.17408
1 0.748523 11.9537 0.268584
1 1.38038 11.6179 1.58921
2 3.35981 0.0973132 14.3526
1 3.37461 0.439083 13.4586
1 4.049 0.590821 14.7972
2 2.23396 4.03547 1.19579
1 2.6838 3.47138 0.566757
1 1.58463 3.43239 1.55758
2 1.05835 13.5476 13.5938
1 1.641 13.095 12.9839
1 1.13415 14.4665 13.3366
2 3.5696 8.13457 0.387312
1 2.65156 7.93645 0.572182
1 4.01915 7.72461 1.12628
2 1.67241 6.58207 11.9953
1 0.979693 7.22277 12.1561
1 1.17215 5.85162 11.6314
2 1.46601 9.3699 7.13461
1 1.3268 8.72138 6.44448
1 2.07053 9.97845 6.70982
2 7.41787 0.624779 3.34704
1 7.98236 15.505 2.88496
1 6.66651 0.0805888 3.5827
2 1.2 7.16257 5.12002
1 1.26254 7.04546 4.17207
1 0.355 6.76612 5.33226
2 5.2441 5.77711 11.3979
1 4.57682 5.37274 10.8434
1 5.43846 5.06719 12.0099
2 7.48577 13.9543 7.36488
1 7.33323 14.6657 6.74283
1 8.29903 13.6 7.00533
2 0.563486 11.5182 10.9148
1 1.50703 11.4996 10.7548
1 0.305407 12.2357 10.3363
2 2.98682 14.0019 3.46864
1 2.21539 14.3511 3.91491
1 2.6065 13.2993 2.94143
2 8.26858 0.969495 6.28299
1 8.2308 0.722669 5.35894
1 8.3214 1.92338 6.22352
2 7.3644 10.1664 13.4918
1 6.67363 9.94403 14.116
1 8.10914 9.70773 13.8806
318
 Atoms. Timestep: 1000
2 5.34862 10.4025 9.03368
1 5.31382 11.0884 9.70077
1 4.46516 10.4171 8.66503
2 10.0807 7.1804 5.31879
1 10.3757 8.007 5.70129
1 9.16629 7.39309 5.13125
2 2.54278 6.90542 1.99483
1 3.02772 6.13582 1.6962
1 2.30134 7.30667 1.15976
2 11.0404 6.40732 2.19107
1 11.0605 6.42345 3.14813
1 11.855 5.97049 1.94152
2 11.1756 3.10095 1.43569
1 11.4373 3.03369 2.35416
1 11.8575 3.65013 1.04846
2 12.3639 13.2896 6.68
1 12.1048 12.5388 6.14551
1 13.3181 13.2223 6.72025
2 9.87334 14.2083 8.19902
1 10.6631 13.9012 7.75347
1 9.34492 13.4099 8.18963
2 14.5728 3.30272 3.16949
1 13.8416 3.44409 3.77115
1 14.8725 2.44287 3.46517
2 7.98473 11.0975 8.15235
1 7.83566 11.7339 7.45279
1 7.12018 10.8142 8.45051
2 8.4881 10.3748 11.0464
1 8.36342 10.5531 10.1141
1 8.14249 11.1941 11.4013
2 11.0025 0.766632 3.59574
1 10.4757 1.44835 4.01328
1 10.4829 0.565648 2.81717
2 6.55885 6.83559 6.82856
1 6.72606 7.12469 7.72583
1 7.273 6.19873 6.79807
2 3.7599 4.67064 7.13205
1 4.17765 5.36639 6.6241
1 4.52757 4.11404 7.26407
2 2.23476 10.7703 11.6599
1 3.15912 11.0178 11.6298
1 2.19904 9.83749 11.8725
2 5.96559 13.042 4.1019
1 6.10419 12.1144 3.90943
1 5.01785 13.1318 4.20331
2 4.8665 14.9467 12.1596
1 5.66306 0.403999 12.0939
1 4.40613 15.2247 12.9517
2 0.719244 12.7156 1.44789
1 0.775535 13.3278 2.18187
1 1.05786 11.8869 1.78717
2 2.49713 8.20724 7.39783
1 2.38854 8.50255 6.4936
1 2.76748 8.99489 7.87018
2 11.4252 0.784192 6.25796
1 11.9657 15.0655 6.31032
1 11.1846 0.634237 5.3435
2 2.90766 6.18095 9.17688
1 2.9758 6.95794 8.62167
1 2.88345 5.50972 8.4946
2 9.29605 7.74791 0.583439
1 9.57946 8.63796 0.373378
1 10.0134 7.43199 1.13311
2 4.94867 4.47706 12.7762
1 5.60586 3.82897 13.0306
1 4.19581 3.90418 12.9233
2 2.62357 8.14066 12.067
1 3.4772 7.70951 12.0216
1 2.10098 7.65196 11.4309
2 13.3001 9.88309 4.02453
1 13.9354 10.5417 4.30596
1 13.7867 9.60714 3.24753
2 10.2988 9.29032 7.30343
1 9.74447 10.0321 7.54642
1 10.1916 8.78628 8.11027
2 14.1869 2.10641 6.34999
1 15.0678 2.45984 6.47531
1 13.6769 2.66725 6.93475
2 0.960612 1.62315 14.5297
1 15.2114 2.05009 14.2776
1 0.789135 0.681446 14.5091
2 9.24393 10.2036 4.05571
1 9.07429 9.33757 4.42697
1 8.37112 10.245 3.6645
2 4.23946 14.8904 6.39241
1 4.00038 14.873 7.31931
1 3.85799 14.1492 5.9215
2 1.86793 1.2433 8.9567
1 2.73856 0.932529 9.20576
1 1.98009 1.66234 8.10322
2 13.7993 4.35397 10.926
1 13.4528 4.77991 11.7103
1 12.9981 4.00953 10.5311
2 10.5314 0.599374 10.4952
1 10.1668 15.2562 9.71213
1 11.3992 0.687292 10.1005
2 6.84216 7.77817 9.33342
1 6.28379 7.2971 9.94449
1 6.56685 8.64791 9.62381
2 5.03137 1.79285 1.29394
1 5.38759 1.03686 1.76108
1 5.87702 2.06293 0.935392
2 7.68366 12.4782 12.3411
1 7.90152 12.4925 13.2733
1 7.96813 13.3377 12.0298
2 5.83665 6.98597 2.00429
1 6.14637 7.00133 1.09851
1 5.35836 6.15687 2.02539
2 11.3384 11.4573 4.87997
1 10.4427 11.13 4.79512
1 11.8431 10.7768 4.43412
2 9.97819 8.29781 12.1898
1 10.4597 8.84178 12.8134
1 9.37857 8.95304 11.8325
2 14.2737 8.446 14.3876
1 14.3635 9.33275 14.038
1 13.5023 8.14773 13.9053
2 10.6412 11.5359 1.92675
1 11.0994 12.2129 2.42507
1 10.1632 11.0534 2.60146
2 11.2575 3.49209 10.112
1 10.5333 4.09912 9.95823
1 10.9976 2.68529 9.66689
2 7.49097 7.88392 4.73503
1 7.03515 7.43022 4.02581
1 6.82175 7.81878 5.41655
2 7.93481 15.1981 11.5872
1 7.83421 1.07874 11.6426
1 8.81297 0.221648 11.2175
2 7.31502 13.0129 6.6345
1 6.6758 13.6406 6.97217
1 7.20803 13.073 5.68501
2 13.8466 0.493386 4.24213
1 12.9049 0.531311 4.07358
1 13.9935 0.990818 5.04687
2 2.45324 2.11725 6.58724
1 2.75934 1.34012 6.11928
1 3.13093 2.76863 6.40542
2 13.6964 2.80516 13.8673
1 12.9322 2.3659 13.4934
1 13.6493 3.61995 13.3668
2 3.67046 0.280035 14.4691
1 4.44952 0.572425 14.9425
1 3.18379 1.10283 14.4164
2 3.07236 2.72329 12.8889
1 2.67982 2.51095 12.0419
1 2.29599 2.72913 13.4491
2 7.55941 2.51623 0.979196
1 8.2898 1.93321 0.771305
1 8.00332 3.36444 0.969675
2 12.6727 13.3163 2.52066
1 12.4061 14.0951 3.0096
1 13.4819 13.0481 2.95639
2 14.7466 12.1289 4.58235
1 0.381148 12.6474 4.19296
1 15.0672 12.1125 5.48429
2 4.35712 14.9245 9.64156
1 5.23026 14.8783 9.25153
1 4.59954 14.9732 10.5665
2 14.5685 10.9243 13.4404
1 13.8156 11.4704 13.2136
1 14.9113 11.4459 14.1664
2 15.0385 10.0061 8.7193
1 14.4954 9.95757 9.50629
1 14.5612 9.46169 8.0928
2 5.69717 10.3021 4.0457
1 5.51602 9.93701 4.91197
1 5.11738 9.85159 3.4313
2 13.0465 9.15548 6.94799
1 12.1535 9.15053 7.29318
1 12.9039 9.53228 6.07948
2 11.0203 1.93631 12.6505
1 10.7997 1.39253 11.894
1 10.6057 2.75 12.3631
2 13.8195 5.50613 13.5906
1 13.6334 5.48387 14.5294
1 14.3776 6.28229 13.5379
2 9.87252 1.49702 15.0369
1 10.3352 2.00286 0.635484
1 10.4175 1.75277 14.2924
2 12.6688 4.382 4.73457
1 13.4007 4.59345 5.31441
1 11.9508 4.27952 5.35961
2 4.27864 4.50252 1.80465
1 4.57924 3.632 1.54302
1 3.56946 4.35053 2.42959
2 14.9481 6.47567 2.99421
1 0.835112 6.44672 2.97647
1 14.7523 6.51111 3.93069
2 2.35829 10.849 2.59394
1 3.00156 10.3501 2.08999
1 2.11023 10.1589 3.20948
2 14.6349 8.88514 2.1193
1 14.658 7.99843 2.47954
1 14.5686 8.63308 1.19812
2 14.5188 6.7278 8.73146
1 14.613 7.65748 8.93981
1 15.1275 6.20692 9.25575
2 0.681768 13.1037 11.4897
1 0.774754 13.4891 12.3612
1 1.26065 12.3428 11.5396
2 10.4784 4.66951 6.54372
1 10.4552 5.4267 5.95829
1 10.61 5.11359 7.38164
2 9.19699 2.58959 4.7643
1 8.29417 2.71352 4.47076
1 9.19399 3.10197 5.57305
2 7.57665 2.91328 12.581
1 7.95449 3.77228 12.3913
1 7.9721 2.67086 13.4185
2 11.5667 12.2675 13.4959
1 12.0538 12.7067 12.7985
1 12.1968 12.5147 14.1731
2 9.55045 4.7918 13.0845
1 9.84666 5.6555 12.7966
1 9.33601 4.95347 14.0035
2 13.6098 9.9125 11.1612
1 13.2312 10.7831 11.0378
1 14.2655 10.127 11.8251
2 7.56816 2.49233 8.84962
1 8.44478 2.39 8.47856
1 7.74838 3.27579 9.36953
2 5.80415 3.28589 7.08519
1 6.42755 2.71744 7.53781
1 5.76845 2.93707 6.19433
2 13.5429 4.86382 1.24456
1 13.9956 4.05422 1.48164
1 13.8841 5.42735 1.93921
2 9.90712 2.27451 7.7253
1 10.4339 2.85705 7.17778
1 10.2888 1.48688 7.33725
2 11.8472 6.13063 8.74842
1 11.2945 6.80423 9.14515
1 12.6672 6.37981 9.17532
2 14.5275 7.16939 5.4849
1 15.0861 7.29028 6.25298
1 13.6611 7.39501 5.82407
2 9.87384 7.59347 9.6204
1 8.97331 7.91819 9.63546
1 10.1215 7.73515 10.5343
2 8.57549 14.694 1.47769
1 8.92987 0.242177 0.838003
1 8.56207 13.8955 0.949655
2 10.7566 9.90465 14.4087
1 11.0119 10.1783 0.220095
1 10.9951 10.7059 13.942
2 1.27539 2.6407 11.0458
1 1.44898 2.16643 10.2325
1 0.361784 2.85175 10.8525
2 4.26245 9.34697 1.42809
1 4.90682 8.69136 1.69564
1 3.58332 8.89707 0.925136
2 8.78655 5.26055 0.872909
1 8.86558 6.21038 0.782403
1 9.42772 5.12729 1.57131
2 5.01959 12.3147 10.8554
1 5.44458 12.2588 11.7114
1 4.73024 13.225 10.7925
2 15.0355 12.4184 7.15907
1 15.0662 13.028 7.89669
1 15.2312 11.5788 7.57559
2 15.0581 14.5408 9.12126
1 0.662296 15.2088 8.99409
1 0.386596 14.0425 9.83513
2 12.6538 0.368044 8.97375
1 13.5954 0.269544 9.11647
1 12.5592 0.378647 8.02109
2 13.5287 13.0754 15.0966
1 14.4536 13.1616 0.258834
1 13.0497 13.1034 0.855314
2 13.7711 4.3967 7.32453
1 14.3501 5.1415 7.48761
1 13.0218 4.66436 7.85699
2 0.905731 14.4196 3.5363
1 1.46489 15.0196 3.04239
1 15.1829 14.9395 3.6711
2 1.44011 14.047 14.3006
1 2.35795 14.3063 14.2175
1 1.55011 13.5502 15.1116
2 2.07275 3.62982 3.30335
1 1.11724 3.66623 3.25555
1 2.18061 2.78797 2.86033
2 2.16391 1.26233 1.93292
1 1.9679 1.55853 1.04384
1 3.1176 1.17824 1.92815
2 2.14313 8.0103 14.8173
1 1.20911 8.14332 14.6544
1 2.48584 7.93279 13.9267
2 1.23953 5.71912 11.0996
1 1.91102 5.578 10.4319
1 0.547629 5.07856 10.9336
2 2.61566 10.5979 8.88787
1 2.46263 10.6751 9.82981
1 1.75924 10.6206 8.46051
2 6.35011 0.272938 2.86947
1 7.13458 15.1532 2.3544
1 6.24555 14.4828 3.27712
2 2.0697 8.70681 4.32227
1 2.32033 7.98755 3.74223
1 1.23729 8.45896 4.7251
2 5.01444 6.39349 10.9334
1 4.34633 5.99074 10.3783
1 5.0478 5.80304 11.6863
2 6.78591 15.0008 8.58779
1 6.99737 0.864457 8.61174
1 7.53875 14.57 8.99307
2 13.0517 13.1075 11.3015
1 14.0085 13.1109 11.2661
1 12.8608 13.9652 10.9214
2 3.12506 13.1857 4.11769
1 3.11834 12.4898 3.46022
1 2.33169 13.7087 4.00102
2 6.17879 2.7913 4.36793
1 5.88085 1.89731 4.19887
1 6.13499 3.21488 3.51048
2 9.37782 12.9204 14.7743
1 10.1399 12.7107 14.2341
1 9.74276 12.4286 0.440407
318
 Atoms. Timestep: 2000
2 6.74142 11.7195 7.64515
1 6.31798 11.535 8.48333
1 6.07218 11.3413 7.07499
2 7.79209 5.76249 6.9474
1 7.57887 5.6671 7.87552
1 7.54155 6.65869 6.72377
2 4.8527 10.29 1.63744
1 4.27726 10.6972 2.28473
1 4.23416 9.5787 1.4718
2 12.0113 6.43804 4.39583
1 11.4873 6.36226 5.19309
1 12.6991 6.94471 4.82731
2 9.13305 1.96751 3.73675
1 8.62067 1.70608 4.50163
1 9.97121 2.238 4.11131
2 12.2281 12.759 6.17491
1 12.0399 11.8722 5.86832
1 13.0573 12.6012 6.62592
2 10.3206 13.1675 8.15734
1 11.2412 13.1076 7.90269
1 9.82228 13.1732 7.34024
2 12.5813 3.46183 1.36098
1 12.9603 2.757 1.88593
1 11.9717 2.9446 0.834844
2 8.98495 10.749 8.82017
1 9.41872 11.6021 8.82602
1 8.28542 10.919 8.18954
2 7.98348 10.2025 11.5223
1 8.26869 10.8523 12.1644
1 8.24296 10.6425 10.713
2 9.75084 14.5407 2.24375
1 9.24989 0.355588 2.76719
1 9.18799 13.769 2.30358
2 7.50018 8.45388 7.1892
1 7.20024 8.57747 8.08959
1 6.7823 8.96692 6.81853
2 6.66818 3.69069 3.48251
1 7.44525 3.13313 3.51797
1 6.35257 3.63355 4.38423
2 3.89874 11.0006 11.2015
1 4.8037 11.2728 11.0503
1 4.15281 10.123 11.4867
2 7.97995 12.3214 3.07067
1 7.6525 11.6613 2.45984
1 7.31307 13.0078 3.06577
2 3.18916 0.830253 12.1471
1 3.63988 0.84919 12.9912
1 2.64423 1.61642 12.1161
2 2.92607 13.8827 2.99163
1 2.03911 14.1424 3.24029
1 2.93168 12.941 3.16219
2 4.80493 9.39849 7.11895
1 4.25103 9.90109 6.52183
1 4.20639 8.90448 7.67902
2 11.0043 14.9588 5.65274
1 11.3272 14.1144 5.96701
1 10.1008 14.7128 5.45473
2 3.29358 2.40557 6.51191
1 3.67669 2.83213 7.27822
1 4.04602 2.18168 5.96449
2 10.5621 6.59508 2.23574
1 11.1329 7.00101 1.58354
1 11.211 6.62367 2.93866
2 4.47476 6.29392 13.5001
1 3.84113 5.80897 14.0285
1 4.98129 5.55686 13.1593
2 4.39972 8.65214 12.2191
1 3.56887 8.22139 12.0189
1 4.60863 8.03685 12.9217
2 14.3238 10.2797 2.60614
1 14.5373 10.8669 3.33108
1 15.0546 9.66896 2.70126
2 10.2507 8.12741 8.37223
1 9.85076 8.78301 8.94335
1 9.55643 8.01627 7.72296
2 13.9726 3.69319 4.08739
1 13.7898 2.75613 4.15419
1 14.4518 3.7021 4.91576
2 14.3006 2.07867 13.5411
1 13.4319 2.21248 13.1626
1 14.3696 1.14187 13.3578
2 9.16732 9.31167 5.33076
1 9.00992 8.81004 4.53104
1 8.67042 8.8871 6.02988
2 0.793168 1.33255 7.6697
1 14.9822 2.04461 7.82034
1 1.49666 1.73981 7.16454
2 0.389859 5.0493 10.3313
1 14.4551 4.59189 9.94228
1 14.929 5.91797 10.035
2 12.4435 2.64622 11.6183
1 12.599 3.46213 12.0937
1 12.7169 2.74083 10.7061
2 10.6949 14.351 10.4921
1 10.4305 14.1227 9.60102
1 11.5067 13.8503 10.5713
2 6.48101 8.21488 9.78728
1 5.54246 8.37218 9.68559
1 6.75676 8.81577 10.4793
2 4.82354 3.2454 1.26498
1 5.39788 3.41356 2.01186
1 5.50413 3.10493 0.606917
2 8.65019 12.8972 12.0366
1 8.48403 13.1835 12.9345
1 9.12003 13.5888 11.5709
2 6.44097 6.53588 2.49999
1 5.58005 6.87177 2.74874
1 6.33803 5.58879 2.59156
2 11.7205 10.427 5.13291
1 10.8119 10.1835 5.30947
1 11.7676 10.2779 4.18875
2 8.85953 8.27309 13.2569
1 8.11129 7.81402 13.6382
1 8.38405 8.60626 12.4961
2 0.773185 7.01273 0.458819
1 0.895947 6.34345 14.5963
1 14.9632 6.70134 1.11763
2 8.99811 10.7534 14.1594
1 8.4284 10.7011 14.9266
1 9.05368 9.83039 13.9126
2 12.9862 3.17441 8.99988
1 12.2808 3.82121 9.00709
1 12.8582 2.71937 8.16769
2 8.48147 8.26487 2.79279
1 9.28858 7.83212 2.51482
1 7.79089 7.60509 2.85397
2 7.68284 2.4828 11.5898
1 8.21068 3.27639 11.6768
1 8.38005 1.9008 11.8917
2 8.72484 13.5311 5.83624
1 7.8445 13.8649 6.00817
1 8.51825 12.869 5.17676
2 12.2392 0.5714 3.11565
1 11.4837 14.9244 2.74714
1 11.8821 0.701912 3.99394
2 2.31446 4.07281 4.58373
1 2.31108 3.53029 3.7953
1 2.52312 3.42943 5.26085
2 11.0667 1.88078 14.8352
1 11.4015 1.04405 0.346805
1 10.6426 1.64213 14.0111
2 3.82888 0.830916 14.6946
1 4.39691 15.0542 0.382572
1 4.13024 1.67171 15.0384
2 5.25454 3.46906 10.8924
1 4.66823 3.10101 11.5532
1 6.09978 3.06146 11.0805
2 6.33789 3.69379 13.9666
1 6.9682 3.03133 13.6842
1 6.99401 4.23357 14.4072
2 10.2982 10.7498 2.81345
1 9.92603 11.5859 3.09335
1 9.47897 10.2611 2.7358
2 0.574923 11.9663 4.40119
1 0.486857 12.9113 4.2775
1 15.1076 11.9646 5.31705
2 3.66548 14.9341 9.48943
1 4.62175 14.9732 9.4912
1 3.48977 0.547104 10.3295
2 11.6474 10.0911 13.1004
1 12.031 10.0888 13.9773
1 10.8637 10.6133 13.2707
2 13.7245 10.4759 8.88381
1 13.6255 10.1648 9.78347
1 13.5063 9.67703 8.40412
2 7.37853 10.3648 1.39211
1 6.43894 10.249 1.25164
1 7.61213 9.48052 1.67381
2 12.6147 8.80331 6.99272
1 11.811 8.79598 7.51235
1 12.2976 9.47059 6.38432
2 10.216 1.53092 12.3354
1 10.375 0.716989 11.8576
1 11.0338 1.94688 12.0628
2 12.5971 4.84779 13.1415
1 12.1829 5.70544 13.2358
1 12.9344 4.84593 14.0371
2 8.42092 2.11949 1.01505
1 8.59511 2.73316 1.72851
1 9.32685 2.10369 0.706896
2 11.2649 3.50825 4.18599
1 12.1829 3.67066 3.96946
1 11.0443 4.34693 4.59085
2 3.04865 4.78304 15.1074
1 3.58763 4.02327 0.516434
1 2.1419 4.48138 0.349448
2 1.87031 6.63979 4.37944
1 2.10678 5.75898 4.66957
1 1.16424 6.71665 5.02093
2 2.68973 10.9775 2.99785
1 1.89109 11.2846 3.42667
1 2.46401 10.0548 2.88146
2 1.34486 8.61277 2.57199
1 1.62789 7.86293 3.09506
1 1.47606 8.24891 1.69657
2 0.367507 7.47416 9.37089
1 15.1021 8.37837 9.67519
1 1.29104 7.27585 9.52489
2 1.93769 13.352 11.5766
1 2.48662 14.0927 11.8333
1 2.61531 12.6819 11.6648
2 10.4507 5.33615 6.36707
1 9.52648 5.25274 6.60112
1 10.8773 5.30226 7.22314
2 7.56814 1.51018 5.74009
1 7.62932 1.8711 6.62436
1 6.73531 1.0472 5.6507
2 9.52308 4.48302 11.7341
1 9.26776 4.52068 12.6557
1 10.4079 4.13991 11.8581
2 11.7668 13.9128 14.4327
1 12.4651 13.9427 13.7789
1 11.8664 12.9883 14.6595
2 8.98488 4.89834 14.2969
1 9.66288 5.55364 14.1331
1 8.88134 4.92081 0.437647
2 13.8091 9.82696 11.5028
1 12.9524 9.83561 11.9292
1 14.3973 9.78745 12.2567
2 7.99708 2.7528 8.44655
1 8.30061 3.55349 8.01907
1 7.50812 3.19851 9.13808
2 4.56669 3.78849 8.33
1 4.63496 3.37467 9.19027
1 5.05175 4.60921 8.41382
2 13.6791 5.85143 1.97854
1 13.0811 5.1127 1.86614
1 13.354 6.14584 2.82919
2 12.1219 2.3554 6.43981
1 11.6767 2.81209 5.72619
1 11.6019 1.55189 6.44211
2 11.6843 5.74768 8.90102
1 11.9534 5.85328 9.81339
1 11.4474 6.66525 8.7672
2 14.5649 7.03691 6.59525
1 14.4239 7.15514 7.53446
1 13.9331 7.70283 6.32423
2 7.28835 5.57574 9.50211
1 7.02571 6.45958 9.75866
1 7.59111 5.30841 10.3698
2 6.7087 14.9856 0.549131
1 7.31267 0.876455 0.792627
1 7.36061 14.4753 14.8795
2 11.4203 7.40617 13.3161
1 10.493 7.44471 13.0827
1 11.7255 8.30401 13.1868
2 1.60029 3.19121 12.0693
1 1.15278 3.81318 11.4958
1 0.82575 2.9772 12.5891
2 6.98129 7.19629 14.6526
1 6.07193 6.89808 14.6604
1 7.05654 7.05247 0.785302
2 8.90589 4.61681 2.25729
1 9.72362 5.10394 2.35717
1 8.41299 4.88013 3.03425
2 6.11223 12.2391 10.3125
1 6.72646 12.3636 11.0358
1 5.94755 13.1651 10.1352
2 14.5173 12.3483 7.0704
1 14.7609 12.9434 7.77929
1 14.6976 11.4895 7.45246
2 0.654275 13.8071 9.00144
1 0.567851 14.7538 8.89107
1 1.35957 13.7956 9.64826
2 13.053 13.0657 10.1138
1 13.9316 13.4086 9.95107
1 13.1126 12.2178 9.67407
2 12.3491 10.9966 0.735538
1 13.0801 10.7227 1.28925
1 11.6419 11.0101 1.38023
2 0.477681 4.17944 6.72815
1 14.9671 5.08043 6.69516
1 1.20265 4.30407 7.34041
2 0.352427 14.6126 3.72736
1 0.801837 0.64501 3.78659
1 14.2595 14.9274 3.69973
2 1.62916 14.2167 15.0671
1 2.28868 14.8997 14.9466
1 2.02086 13.7244 0.97789
2 0.679153 3.40465 0.607274
1 14.8022 3.87277 1.08089
1 14.8712 3.01794 14.7981
2 1.6938 2.12562 2.70949
1 1.36284 2.60017 1.94712
1 2.53212 1.87643 2.3208
2 3.71068 6.82716 2.24085
1 3.2807 6.87035 3.09479
1 3.2656 6.06084 1.87945
2 2.81171 6.60519 10.6448
1 2.02949 6.13441 10.9319
1 3.41953 6.08681 11.1718
2 1.59385 9.95479 10.2305
1 2.37757 10.4696 10.4222
1 0.916042 10.6154 10.0887
2 5.71409 13.7884 3.02318
1 6.02702 14.1332 2.18704
1 4.77111 13.8807 2.8882
2 3.76107 11.8936 5.57911
1 3.18534 12.6407 5.74173
1 3.5035 11.543 4.72668
2 3.4185 8.42664 9.0721
1 2.79584 9.01855 9.49389
1 3.40066 7.66685 9.65379
2 6.39709 0.354676 9.63809
1 6.79899 0.924801 8.98282
1 6.76415 0.828447 10.3843
2 14.3588 14.1672 13.3118
1 15.0176 14.0972 14.0025
1 14.6288 13.5699 12.6145
2 2.79879 14.3912 6.77936
1 1.92807 14.7233 6.56143
1 2.94453 14.7866 7.63863
2 5.45046 15.056 5.83169
1 4.54328 14.9952 6.1305
1 5.49829 14.1458 5.53973
2 9.13815 14.0425 14.664
1 10.0353 13.7469 14.51
1 9.26981 14.4943 0.686839
318
 Atoms. Timestep: 3000
2 6.59398 11.5721 9.11919
1 6.53646 12.3601 9.65938
1 5.79031 11.5378 8.60049
2 5.83259 5.57507 5.83182
1 6.09921 4.86494 6.41557
1 6.35209 6.22059 6.31094
2 5.6255 9.34048 0.894809
1 5.32471 9.94042 1.57725
1 4.96434 9.41304 15.2692
2 11.6399 6.63266 5.72535
1 12.466 6.60074 5.24311
1 11.0236 6.37885 5.03838
2 9.30058 2.33256 4.14042
1 8.91553 3.19504 3.98551
1 9.87145 2.52891 4.88318
2 12.8828 11.7247 5.25082
1 12.0833 11.2956 5.55556
1 13.3837 11.5064 6.03669
2 9.69842 15.0315 8.37379
1 10.606 14.7403 8.28612
1 9.3615 14.6365 7.56969
2 12.6974 3.72673 2.59943
1 12.8421 3.40623 3.48963
1 11.9312 3.17685 2.43602
2 9.22399 11.6385 8.13656
1 9.64014 12.2061 8.78528
1 8.44943 11.2782 8.56825
2 7.24848 9.62705 10.9575
1 7.03681 10.3558 10.3742
1 7.19644 9.97395 11.848
2 10.41 14.9741 4.49146
1 9.7992 0.611052 4.26021
1 9.94278 14.5145 5.18901
2 6.79322 7.34753 7.46968
1 6.96384 7.30808 8.41067
1 6.23424 8.12212 7.40918
2 5.81126 5.39941 1.14275
1 6.51323 5.26048 0.507101
1 5.50089 6.29699 1.02384
2 3.45705 12.53 11.6862
1 4.30868 12.9664 11.7076
1 3.01745 12.9681 12.4149
2 6.4567 13.6967 4.76916
1 6.97462 13.3185 4.05866
1 5.76063 14.0771 4.23348
2 2.7952 1.55802 11.9694
1 2.78787 1.77937 12.9006
1 1.92854 1.9087 11.7644
2 2.60332 13.1404 1.34423
1 1.74394 13.5492 1.4465
1 2.41951 12.4037 1.92698
2 4.41519 8.65034 7.56011
1 4.46802 9.5875 7.74737
1 4.44311 8.28372 8.44381
2 12.8598 14.0337 3.33599
1 12.5317 13.2305 3.74007
1 12.0113 14.4642 3.23224
2 2.9037 3.51556 6.14031
1 3.24974 4.07221 6.83782
1 2.92953 2.64896 6.54585
2 12.0734 6.77114 15.0525
1 12.7795 6.34913 0.479168
1 12.1745 6.45496 14.1548
2 5.28645 5.63088 12.8517
1 5.31259 4.97359 12.1565
1 6.05757 5.37224 13.3563
2 3.44042 7.65373 12.6865
1 2.54841 7.34259 12.8402
1 3.99246 6.89855 12.8891
2 1.60395 11.6921 3.55403
1 2.28095 11.7114 4.23036
1 1.0559 10.9234 3.71148
2 11.0553 10.439 6.48278
1 10.7114 10.9233 7.23326
1 10.2601 10.3438 5.9587
2 13.8008 2.96336 5.02062
1 14.3353 3.72213 5.25452
1 14.4965 2.34173 4.80668
2 12.1512 13.1891 12.1064
1 12.2444 13.9842 11.5818
1 13.0433 12.9153 12.3191
2 9.89762 10.5186 3.46851
1 10.4283 10.7265 2.69953
1 9.85422 9.56823 3.3637
2 15.2653 0.392816 7.12693
1 14.3571 0.429241 6.82716
1 0.620612 0.816577 6.37735
2 12.9317 3.73394 9.79179
1 13.7721 4.16943 9.64974
1 12.3197 4.30692 9.32987
2 11.9716 0.723067 10.9985
1 12.4083 0.943041 11.8213
1 12.4004 1.33147 10.3968
2 9.77117 12.9751 10.7429
1 9.80775 13.6598 10.0751
1 10.6735 13.0176 11.0594
2 7.06307 7.1061 10.0523
1 6.54076 6.50637 10.5848
1 7.04878 7.9879 10.4242
2 3.29005 3.7192 14.931
1 4.05725 4.13998 0.256288
1 3.37161 4.18976 14.1016
2 7.99609 14.1691 12.7116
1 8.13494 13.8431 13.6007
1 8.73194 13.6969 12.3221
2 8.19972 8.05179 0.574763
1 7.44334 8.61391 0.74219
1 8.35363 8.08169 14.6932
2 10.8535 8.08036 7.73079
1 11.0904 8.89234 7.2828
1 10.7625 7.58477 6.91702
2 8.87679 7.50545 13.1701
1 9.25407 8.37524 13.0388
1 8.58769 7.28867 12.2838
2 13.9606 6.40516 4.08643
1 14.8252 6.29434 4.48188
1 14.173 5.86115 3.32811
2 7.45723 10.2642 13.5443
1 7.7341 11.0077 14.0797
1 6.55772 10.227 13.8693
2 14.4535 1.44907 9.45331
1 14.9845 0.878838 8.89743
1 14.0424 1.94699 8.74673
2 10.0252 7.8417 2.63294
1 10.6683 7.24963 2.24308
1 9.47145 7.84986 1.85225
2 7.38504 1.88085 11.8609
1 7.81364 1.02956 11.773
1 7.35924 2.04792 12.803
2 8.894 13.7589 6.27025
1 7.96293 13.7549 6.0484
1 8.94308 12.81 6.38525
2 15.167 13.582 2.02637
1 0.377447 12.8918 2.63061
1 14.2845 13.7824 2.3379
2 2.54638 7.46151 2.63373
1 2.48299 7.07309 1.76124
1 2.95878 6.79465 3.18269
2 10.5634 2.4352 2.01973
1 9.99084 2.24515 2.76284
1 10.3821 1.72908 1.39953
2 2.72139 1.24522 14.8826
1 3.08521 2.13038 14.8983
1 2.89292 0.992558 0.727003
2 5.24102 3.37602 11.0131
1 4.59179 2.80101 11.4181
1 6.07857 2.95361 11.2034
2 7.46172 4.80678 13.8054
1 7.92505 3.98576 13.64
1 8.27583 5.30569 13.872
2 12.9473 10.6113 2.83525
1 13.8143 10.2269 2.96449
1 12.9449 11.0819 3.6687
2 3.52352 11.6201 5.30297
1 3.59321 11.9599 6.19507
1 3.75602 10.703 5.44783
2 5.17275 0.788366 7.7287
1 5.16459 1.72598 7.5365
1 5.95335 0.856095 8.27842
2 12.4945 10.0583 13.0643
1 12.3625 10.386 13.9539
1 11.8116 10.525 12.5828
2 14.2707 9.27634 9.20367
1 14.7718 9.70142 9.89963
1 14.8856 8.62491 8.86642
2 7.97473 12.2594 3.12742
1 7.36056 11.5266 3.08216
1 8.71942 11.7646 3.46916
2 12.4543 6.94721 10.0534
1 11.5344 7.00983 10.3103
1 12.4634 7.76822 9.56149
2 9.71232 0.275647 14.9089
1 10.2009 14.5168 14.9589
1 10.1037 0.683892 14.1368
2 12.4233 4.78907 12.0893
1 12.7889 5.63296 11.8241
1 12.4571 4.33549 11.2471
2 6.99332 1.5277 1.98857
1 6.32623 2.00608 2.48078
1 7.41812 1.04252 2.69586
2 11.2545 3.25702 5.98231
1 12.1719 3.22652 5.71127
1 11.4046 3.80372 6.75349
2 0.831114 6.96025 13.0181
1 0.813239 6.93644 13.9748
1 15.2215 7.62459 12.8672
2 3.95054 8.90802 4.58477
1 3.33818 8.4973 3.9745
1 3.58004 8.65852 5.43129
2 5.1798 11.0857 3.30735
1 4.70351 11.4404 4.05797
1 4.85014 10.1872 3.31631
2 0.258394 8.89209 3.61908
1 1.11446 8.58409 3.32176
1 14.8286 8.10936 3.86595
2 2.13484 5.8496 9.97904
1 2.21625 5.57675 10.8929
1 2.61635 6.67673 9.99053
2 2.27255 14.5435 10.2647
1 2.43954 0.389985 10.513
1 3.01021 14.1162 10.6999
2 11.5257 5.1267 7.98332